#Help

3 atoms
2 bonds
0 angles
1 atom types
1 bond types
0 angle types
-20.0 20.0 xlo xhi 
-20.0 20.0 ylo yhi 
-10.5 10.5 zlo zhi 

Masses

1 1.0

Atoms

1	 1	 -2.0	 0.0	 0.0	 2.8	 0.005147941820269122	 0.0	 0	 0	 0	 1	 1 #atom id|type|x0|y0|z0|d|rho|m|mx|my|mz|chi|trap_id
2	 1	 0.0	 0.0	 0.0	 2.8	 0.005147941820269122	 0.0	 0	 0	 0	 1	 2 #atom id|type|x0|y0|z0|d|rho|m|mx|my|mz|chi|trap_id
3	 1	 2.0	 0.0	 0.0	 2.8	 0.005147941820269122	 0.0	 0	 0	 0	 1	 3 #atom id|type|x0|y0|z0|d|rho|m|mx|my|mz|chi|trap_id

PairIJ Coeffs

1 1 lj/cut/dipole/cut 0.01 2.49451641079295 2.8 20

Bond Coeffs

1 0.0 4.0 0.5 1.3

Bonds

1 1 1 2
2 1 2 3

#Angles

#1 1 1 2 3

#Angle Coeffs

#1 0.01 180.0
